! Sonnet Data File
! From: em Version : 16.56
! From Project: cir_normp__er70_1030
! Data is De-embedded 
! Data File Written: 09/18/2021 15:45:53
!< HDATE 08/23/2021 03:48:50
!< MDATE 09/18/2021 15:40:34
# MHZ S MA R 50.00000
1.00000000 0.998710 -6.353 0.030591 83.673 0.030591 83.673 0.998708 -6.340
!< P1 F=1.0 Eeff=(3.51675053 -0.0782127) Z0=(55.6831701 0.61901836) R=10764.786 C=0.27435345 
!< P2 F=1.0 Eeff=(3.51675045 -0.0782127) Z0=(55.6831694 0.61901838) R=10764.7631 C=0.27435347 
10.0000000 0.966230 -57.52 0.232020 32.743 0.232020 32.743 0.966214 -57.44
!< P1 F=10.0 Eeff=(3.51705858 -0.0782121) Z0=(55.68548 0.61910724) R=1076.38489 C=0.27433756 
!< P2 F=10.0 Eeff=(3.51705858 -0.0782121) Z0=(55.68548 0.61910724) R=1076.3849 C=0.27433756 
20.0000000 0.952292 -94.58 0.278674 -4.013 0.278674 -4.013 0.952266 -94.47
!< P1 F=20.0 Eeff=(3.51694109 -0.0782066) Z0=(55.6841591 0.6191293) R=538.045675 C=0.27428889 
!< P2 F=20.0 Eeff=(3.51694109 -0.0782066) Z0=(55.6841591 0.6191293) R=538.045675 C=0.27428889 
30.0000000 0.958853 -116.9 0.257068 -26.19 0.257068 -26.19 0.958826 -116.8
!< P1 F=30.0 Eeff=(3.51674223 -0.0781975) Z0=(55.6819204 0.61916527) R=358.530707 C=0.27420563 
!< P2 F=30.0 Eeff=(3.51674223 -0.0781975) Z0=(55.6819204 0.61916527) R=358.530706 C=0.27420563 
